ATOM      1  C   PRO A   1       2.152  26.320  14.882  1.00  0.00    +0.243 C 
ATOM      2  O   PRO A   1       2.540  25.781  13.845  1.00  0.00    -0.271 OA
ATOM      3  CA  PRO A   1       2.377  25.640  16.230  1.00  0.00    +0.175 C 
ATOM      4  N   PRO A   1       2.477  24.183  16.105  1.00  0.00    -0.329 N 
ATOM      5  CB  PRO A   1       3.731  26.023  16.820  1.00  0.00    +0.037 C 
ATOM      6  CG  PRO A   1       4.661  25.008  16.252  1.00  0.00    +0.024 C 
ATOM      7  CD  PRO A   1       3.874  23.722  16.165  1.00  0.00    +0.121 C 
ATOM      8  C   GLY A   3       3.889  30.736  11.106  1.00  0.00    +0.239 C 
ATOM      9  O   GLY A   3       3.097  31.437  11.732  1.00  0.00    -0.273 OA
ATOM     10  CA  GLY A   3       3.607  29.261  10.886  1.00  0.00    +0.216 C 
ATOM     11  N   GLY A   3       2.471  28.779  11.648  1.00  0.00    -0.346 N 
ATOM     12  H   GLY A   3       1.907  29.253  12.368  1.00  0.00    +0.164 HD
ATOM     13  C   PRO A   4       4.428  33.465   9.806  1.00  0.00    +0.243 C 
ATOM     14  O   PRO A   4       3.793  32.914   8.909  1.00  0.00    -0.271 OA
ATOM     15  CA  PRO A   4       5.372  32.637  10.665  1.00  0.00    +0.175 C 
ATOM     16  N   PRO A   4       5.029  31.215  10.593  1.00  0.00    -0.329 N 
ATOM     17  CB  PRO A   4       6.809  32.691  10.120  1.00  0.00    +0.037 C 
ATOM     18  CG  PRO A   4       7.267  31.259  10.034  1.00  0.00    +0.024 C 
ATOM     19  CD  PRO A   4       6.032  30.445   9.846  1.00  0.00    +0.121 C 
ATOM     20  C   GLY A   6       4.266  37.022   5.124  1.00  0.00    +0.239 C 
ATOM     21  O   GLY A   6       4.549  37.905   5.934  1.00  0.00    -0.273 OA
ATOM     22  CA  GLY A   6       3.300  35.921   5.497  1.00  0.00    +0.216 C 
ATOM     23  N   GLY A   6       3.003  35.885   6.914  1.00  0.00    -0.346 N 
ATOM     24  H   GLY A   6       2.919  36.535   7.709  1.00  0.00    +0.164 HD
ATOM     25  C   PRO A   7       4.918  39.332   3.207  1.00  0.00    +0.243 C 
ATOM     26  O   PRO A   7       3.691  39.309   3.131  1.00  0.00    -0.271 OA
ATOM     27  CA  PRO A   7       5.684  38.034   3.424  1.00  0.00    +0.175 C 
ATOM     28  N   PRO A   7       4.792  36.972   3.892  1.00  0.00    -0.329 N 
ATOM     29  CB  PRO A   7       6.232  37.482   2.104  1.00  0.00    +0.037 C 
ATOM     30  CG  PRO A   7       5.202  36.522   1.637  1.00  0.00    +0.024 C 
ATOM     31  CD  PRO A   7       4.510  35.972   2.847  1.00  0.00    +0.121 C 
ATOM     32  C   GLY A   9       3.462  43.687  -0.739  1.00  0.00    +0.239 C 
ATOM     33  O   GLY A   9       4.513  44.167  -0.323  1.00  0.00    -0.273 OA
ATOM     34  CA  GLY A   9       2.585  42.856   0.169  1.00  0.00    +0.216 C 
ATOM     35  N   GLY A   9       3.254  42.615   1.431  1.00  0.00    -0.346 N 
ATOM     36  H   GLY A   9       3.667  43.253   2.126  1.00  0.00    +0.164 HD
ATOM     37  C   ARG A  10       3.692  46.129  -2.615  1.00  0.00    +0.242 C 
ATOM     38  O   ARG A  10       2.784  46.568  -1.900  1.00  0.00    -0.273 OA
ATOM     39  CA  ARG A  10       3.823  44.638  -2.921  1.00  0.00    +0.171 C 
ATOM     40  N   ARG A  10       3.037  43.857  -1.984  1.00  0.00    -0.344 N 
ATOM     41  CB  ARG A  10       3.390  44.342  -4.354  1.00  0.00    +0.038 C 
ATOM     42  CG  ARG A  10       1.981  44.791  -4.688  1.00  0.00    +0.040 C 
ATOM     43  CD  ARG A  10       1.727  44.649  -6.173  1.00  0.00    +0.197 C 
ATOM     44  NE  ARG A  10       1.473  43.261  -6.545  1.00  0.00    -0.278 N 
ATOM     45  HE  ARG A  10       1.104  42.627  -5.822  1.00  0.00    +0.260 HD
ATOM     46  CZ  ARG A  10       1.688  42.763  -7.758  1.00  0.00    +0.339 C 
ATOM     47  NH1 ARG A  10       2.170  43.536  -8.722  1.00  0.00    -0.290 N 
ATOM     48  NH2 ARG A  10       1.424  41.489  -8.011  1.00  0.00    -0.290 N 
ATOM     49 HH12 ARG A  10       2.335  43.146  -9.661  1.00  0.00    +0.256 HD
ATOM     50 HH11 ARG A  10       2.379  44.526  -8.532  1.00  0.00    +0.256 HD
ATOM     51 HH22 ARG A  10       1.592  41.105  -8.952  1.00  0.00    +0.256 HD
ATOM     52 HH21 ARG A  10       1.051  40.883  -7.267  1.00  0.00    +0.256 HD
ATOM     53  H   ARG A  10       2.148  43.434  -2.286  1.00  0.00    +0.164 HD
ATOM     54  C   ALA A  11       3.418  49.007  -3.571  1.00  0.00    +0.243 C 
ATOM     55  O   ALA A  11       2.839  48.508  -4.540  1.00  0.00    -0.272 OA
ATOM     56  CA  ALA A  11       4.634  48.343  -2.927  1.00  0.00    +0.168 C 
ATOM     57  N   ALA A  11       4.624  46.907  -3.163  1.00  0.00    -0.344 N 
ATOM     58  CB  ALA A  11       5.923  48.966  -3.462  1.00  0.00    +0.041 C 
ATOM     59  H   ALA A  11       5.348  46.486  -3.763  1.00  0.00    +0.164 HD
ATOM     60  C   GLY A  12       2.084  51.528  -4.834  1.00  0.00    +0.239 C 
ATOM     61  O   GLY A  12       3.209  51.724  -5.298  1.00  0.00    -0.273 OA
ATOM     62  CA  GLY A  12       1.860  50.846  -3.499  1.00  0.00    +0.216 C 
ATOM     63  N   GLY A  12       3.036  50.157  -3.019  1.00  0.00    -0.346 N 
ATOM     64  H   GLY A  12       3.583  50.558  -2.244  1.00  0.00    +0.164 HD
ATOM     65  C   GLU A  13       1.626  54.036  -6.393  1.00  0.00    +0.242 C 
ATOM     66  O   GLU A  13       1.489  54.564  -5.285  1.00  0.00    -0.273 OA
ATOM     67  CA  GLU A  13       1.009  52.671  -6.684  1.00  0.00    +0.171 C 
ATOM     68  N   GLU A  13       0.967  51.880  -5.467  1.00  0.00    -0.344 N 
ATOM     69  CB  GLU A  13      -0.400  52.848  -7.249  1.00  0.00    +0.041 C 
ATOM     70  CG  GLU A  13      -1.001  51.593  -7.864  1.00  0.00    +0.055 C 
ATOM     71  CD  GLU A  13      -0.544  51.381  -9.286  1.00  0.00    +0.041 C 
ATOM     72  OE1 GLU A  13       0.110  52.293  -9.833  1.00  0.00    -0.548 OA
ATOM     73  OE2 GLU A  13      -0.844  50.312  -9.859  1.00  0.00    -0.549 OA
ATOM     74  H   GLU A  13       0.056  51.586  -5.086  1.00  0.00    +0.164 HD
ATOM     75  C   PRO A  14       1.653  56.980  -7.024  1.00  0.00    +0.243 C 
ATOM     76  O   PRO A  14       0.513  56.719  -7.413  1.00  0.00    -0.271 OA
ATOM     77  CA  PRO A  14       2.806  55.999  -7.180  1.00  0.00    +0.175 C 
ATOM     78  N   PRO A  14       2.317  54.631  -7.363  1.00  0.00    -0.329 N 
ATOM     79  CB  PRO A  14       3.606  56.267  -8.460  1.00  0.00    +0.037 C 
ATOM     80  CG  PRO A  14       3.034  55.331  -9.469  1.00  0.00    +0.024 C 
ATOM     81  CD  PRO A  14       2.644  54.098  -8.697  1.00  0.00    +0.121 C 
ATOM     82  C   GLY A  15       0.541  59.940  -7.318  1.00  0.00    +0.239 C 
ATOM     83  O   GLY A  15       1.168  59.926  -8.374  1.00  0.00    -0.273 OA
ATOM     84  CA  GLY A  15       0.955  59.104  -6.121  1.00  0.00    +0.216 C 
ATOM     85  N   GLY A  15       1.967  58.120  -6.434  1.00  0.00    -0.346 N 
ATOM     86  H   GLY A  15       2.950  58.311  -6.193  1.00  0.00    +0.164 HD
ATOM     87  C   LEU A  16      -0.118  62.719  -8.409  1.00  0.00    +0.243 C 
ATOM     88  O   LEU A  16       0.651  63.126  -7.530  1.00  0.00    -0.272 OA
ATOM     89  CA  LEU A  16      -1.080  61.564  -8.148  1.00  0.00    +0.172 C 
ATOM     90  N   LEU A  16      -0.552  60.673  -7.127  1.00  0.00    -0.345 N 
ATOM     91  CB  LEU A  16      -2.444  62.099  -7.706  1.00  0.00    +0.038 C 
ATOM     92  CG  LEU A  16      -3.145  63.169  -8.543  1.00  0.00    -0.015 C 
ATOM     93  CD1 LEU A  16      -4.062  62.538  -9.571  1.00  0.00    +0.007 C 
ATOM     94  CD2 LEU A  16      -3.916  64.132  -7.648  1.00  0.00    +0.007 C 
ATOM     95  H   LEU A  16      -1.042  60.607  -6.224  1.00  0.00    +0.165 HD
ATOM     96  C   GLN A  17       0.184  65.604  -9.114  1.00  0.00    +0.242 C 
ATOM     97  O   GLN A  17      -1.014  65.775  -8.863  1.00  0.00    -0.273 OA
ATOM     98  CA  GLN A  17       0.651  64.418  -9.949  1.00  0.00    +0.171 C 
ATOM     99  N   GLN A  17      -0.150  63.243  -9.633  1.00  0.00    -0.343 N 
ATOM    100  CB  GLN A  17       0.564  64.746 -11.442  1.00  0.00    +0.045 C 
ATOM    101  CG  GLN A  17       1.109  66.124 -11.817  1.00  0.00    +0.102 C 
ATOM    102  CD  GLN A  17       0.957  66.454 -13.295  1.00  0.00    +0.217 C 
ATOM    103  OE1 GLN A  17      -0.061  66.144 -13.916  1.00  0.00    -0.275 OA
ATOM    104  NE2 GLN A  17       1.974  67.100 -13.863  1.00  0.00    -0.368 N 
ATOM    105 HE22 GLN A  17       1.931  67.352 -14.861  1.00  0.00    +0.159 HD
ATOM    106 HE21 GLN A  17       2.803  67.348 -13.304  1.00  0.00    +0.159 HD
ATOM    107  H   GLN A  17      -0.743  62.816 -10.359  1.00  0.00    +0.164 HD
ATOM    108  C   GLY A  18      -0.035  68.594  -8.583  1.00  0.00    +0.239 C 
ATOM    109  O   GLY A  18      -0.284  68.488  -9.789  1.00  0.00    -0.273 OA
ATOM    110  CA  GLY A  18       0.825  67.575  -7.855  1.00  0.00    +0.216 C 
ATOM    111  N   GLY A  18       1.135  66.416  -8.658  1.00  0.00    -0.346 N 
ATOM    112  H   GLY A  18       2.119  66.212  -8.884  1.00  0.00    +0.164 HD
ATOM    113  C   PRO A  19      -0.499  71.586  -9.320  1.00  0.00    +0.243 C 
ATOM    114  O   PRO A  19       0.732  71.575  -9.288  1.00  0.00    -0.271 OA
ATOM    115  CA  PRO A  19      -1.339  70.640  -8.477  1.00  0.00    +0.175 C 
ATOM    116  N   PRO A  19      -0.509  69.603  -7.856  1.00  0.00    -0.329 N 
ATOM    117  CB  PRO A  19      -1.951  71.358  -7.275  1.00  0.00    +0.037 C 
ATOM    118  CG  PRO A  19      -0.892  71.247  -6.239  1.00  0.00    +0.024 C 
ATOM    119  CD  PRO A  19      -0.293  69.868  -6.423  1.00  0.00    +0.121 C 
ATOM    120  C   ALA A  20       0.260  74.391 -10.044  1.00  0.00    +0.243 C 
ATOM    121  O   ALA A  20      -0.110  74.666  -8.899  1.00  0.00    -0.272 OA
ATOM    122  CA  ALA A  20      -0.515  73.408 -10.917  1.00  0.00    +0.168 C 
ATOM    123  N   ALA A  20      -1.194  72.421 -10.090  1.00  0.00    -0.344 N 
ATOM    124  CB  ALA A  20      -1.525  74.154 -11.796  1.00  0.00    +0.041 C 
ATOM    125  H   ALA A  20      -2.223  72.368 -10.101  1.00  0.00    +0.164 HD
ATOM    126  C   GLY A  21       1.538  77.187  -9.693  1.00  0.00    +0.239 C 
ATOM    127  O   GLY A  21       0.431  77.460 -10.177  1.00  0.00    -0.273 OA
ATOM    128  CA  GLY A  21       2.193  75.840  -9.870  1.00  0.00    +0.216 C 
ATOM    129  N   GLY A  21       1.352  74.913 -10.596  1.00  0.00    -0.346 N 
ATOM    130  H   GLY A  21       1.604  74.652 -11.560  1.00  0.00    +0.164 HD
ATOM    131  C   PRO A  22       1.613  80.236 -10.004  1.00  0.00    +0.243 C 
ATOM    132  O   PRO A  22       2.271  79.919 -11.000  1.00  0.00    -0.271 OA
ATOM    133  CA  PRO A  22       1.782  79.448  -8.709  1.00  0.00    +0.175 C 
ATOM    134  N   PRO A  22       2.228  78.075  -8.959  1.00  0.00    -0.329 N 
ATOM    135  CB  PRO A  22       2.914  80.041  -7.860  1.00  0.00    +0.037 C 
ATOM    136  CG  PRO A  22       3.553  78.853  -7.208  1.00  0.00    +0.024 C 
ATOM    137  CD  PRO A  22       3.451  77.739  -8.210  1.00  0.00    +0.121 C 
ATOM    138  C   GLY A  24       3.689  84.805 -12.941  1.00  0.00    +0.239 C 
ATOM    139  O   GLY A  24       2.731  85.544 -12.721  1.00  0.00    -0.273 OA
ATOM    140  CA  GLY A  24       3.485  83.340 -13.259  1.00  0.00    +0.216 C 
ATOM    141  N   GLY A  24       2.237  82.799 -12.764  1.00  0.00    -0.346 N 
ATOM    142  H   GLY A  24       1.421  83.399 -12.579  1.00  0.00    +0.164 HD
ATOM    143  C   PRO A  25       4.714  87.515 -13.787  1.00  0.00    +0.243 C 
ATOM    144  O   PRO A  25       4.712  87.089 -14.944  1.00  0.00    -0.271 OA
ATOM    145  CA  PRO A  25       5.242  86.645 -12.656  1.00  0.00    +0.175 C 
ATOM    146  N   PRO A  25       4.954  85.232 -12.900  1.00  0.00    -0.329 N 
ATOM    147  CB  PRO A  25       6.772  86.695 -12.597  1.00  0.00    +0.037 C 
ATOM    148  CG  PRO A  25       7.231  85.484 -13.316  1.00  0.00    +0.024 C 
ATOM    149  CD  PRO A  25       6.171  84.441 -13.145  1.00  0.00    +0.121 C 
ATOM    150  C   GLY A  27       6.578  91.894 -17.245  1.00  0.00    +0.239 C 
ATOM    151  O   GLY A  27       6.218  92.633 -16.328  1.00  0.00    -0.273 OA
ATOM    152  CA  GLY A  27       5.822  90.616 -17.551  1.00  0.00    +0.216 C 
ATOM    153  N   GLY A  27       4.755  90.302 -16.623  1.00  0.00    -0.346 N 
ATOM    154  H   GLY A  27       4.128  91.003 -16.202  1.00  0.00    +0.164 HD
ATOM    155  C   PRO A  28       7.620  94.570 -18.525  1.00  0.00    +0.243 C 
ATOM    156  O   PRO A  28       6.552  94.346 -19.098  1.00  0.00    -0.271 OA
ATOM    157  CA  PRO A  28       8.441  93.383 -17.999  1.00  0.00    +0.175 C 
ATOM    158  N   PRO A  28       7.657  92.142 -18.003  1.00  0.00    -0.329 N 
ATOM    159  CB  PRO A  28       9.616  93.048 -18.929  1.00  0.00    +0.037 C 
ATOM    160  CG  PRO A  28       9.710  91.565 -18.903  1.00  0.00    +0.024 C 
ATOM    161  CD  PRO A  28       8.298  91.098 -18.820  1.00  0.00    +0.121 C 
