REMARK SMILES CC(C)NCCNC(=O)c1ccc(O)cc1
REMARK SMILES IDX 6 1 5 2 4 3 2 5 1 6 3 7 7 8 8 9 9 10 10 12 11 13 16 14 12 15
REMARK SMILES IDX 15 16 13 17 14 18
REMARK H PARENT 4 4 7 11 14 19
ROOT
ATOM      1  C   UNL     1       0.774  -0.958   0.134  1.00  0.00    +0.131 C 
ENDROOT
BRANCH   1   2
ATOM      2  C   UNL     1       1.797   0.105  -0.272  1.00  0.00    +0.102 C 
BRANCH   2   3
ATOM      3  N   UNL     1       3.157  -0.429  -0.118  1.00  0.00    -0.313 NA
ATOM      4  H   UNL     1       3.362  -0.547   0.903  1.00  0.00    +0.123 HD
BRANCH   3   5
ATOM      5  C   UNL     1       4.176   0.442  -0.732  1.00  0.00    +0.047 C 
ATOM      6  C   UNL     1       4.457   1.690   0.124  1.00  0.00    +0.024 C 
ATOM      7  C   UNL     1       5.463  -0.362  -0.928  1.00  0.00    +0.024 C 
ENDBRANCH   3   5
ENDBRANCH   2   3
ENDBRANCH   1   2
BRANCH   1   8
ATOM      8  N   UNL     1      -0.592  -0.457  -0.018  1.00  0.00    -0.351 N 
ATOM      9  C   UNL     1      -1.725  -1.281   0.297  1.00  0.00    +0.251 C 
ATOM     10  O   UNL     1      -1.551  -2.502   0.561  1.00  0.00    -0.269 OA
ATOM     11  H   UNL     1      -0.745   0.502  -0.404  1.00  0.00    +0.163 HD
BRANCH   9  12
ATOM     12  C   UNL     1      -3.101  -0.727   0.300  1.00  0.00    +0.040 A 
ATOM     13  C   UNL     1      -3.335   0.643   0.528  1.00  0.00    +0.017 A 
ATOM     14  C   UNL     1      -4.202  -1.579   0.098  1.00  0.00    +0.017 A 
ATOM     15  C   UNL     1      -4.639   1.148   0.534  1.00  0.00    +0.047 A 
ATOM     16  C   UNL     1      -5.505  -1.070   0.104  1.00  0.00    +0.047 A 
ATOM     17  C   UNL     1      -5.727   0.292   0.319  1.00  0.00    +0.115 A 
BRANCH  17  18
ATOM     18  O   UNL     1      -7.030   0.785   0.322  1.00  0.00    -0.508 OA
ATOM     19  H   UNL     1      -7.224   1.768   0.476  1.00  0.00    +0.293 HD
ENDBRANCH  17  18
ENDBRANCH   9  12
ENDBRANCH   1   8
TORSDOF 6
