REMARK SMILES O=c1cc(-c2ccc(O)cc2O)oc2cc(O)cc(O)c12
REMARK SMILES IDX 4 1 3 2 2 3 1 4 21 5 19 6 18 7 16 8 15 9 14 10 13 11 5 12
REMARK SMILES IDX 7 13 6 14 8 15 10 16 11 17 9 18 12 20 20 22 17 24
REMARK H PARENT 9 19 12 21 20 23 17 25
ROOT
ATOM      1  C   UNL     1       0.395  -0.438   0.193  1.00  0.00    +0.142 A 
ATOM      2  C   UNL     1      -0.158  -1.561   0.820  1.00  0.00    +0.100 A 
ATOM      3  C   UNL     1      -1.545  -1.687   0.912  1.00  0.00    +0.197 A 
ATOM      4  O   UNL     1      -2.012  -2.675   1.535  1.00  0.00    -0.289 OA
ATOM      5  C   UNL     1      -2.380  -0.696   0.342  1.00  0.00    +0.107 A 
ATOM      6  C   UNL     1      -3.807  -0.739   0.340  1.00  0.00    +0.134 A 
ATOM      7  C   UNL     1      -4.529   0.355  -0.153  1.00  0.00    +0.093 A 
ATOM      8  C   UNL     1      -3.878   1.461  -0.699  1.00  0.00    +0.123 A 
ATOM      9  C   UNL     1      -2.484   1.490  -0.751  1.00  0.00    +0.094 A 
ATOM     10  C   UNL     1      -1.735   0.430  -0.235  1.00  0.00    +0.146 A 
ATOM     11  O   UNL     1      -0.409   0.503  -0.290  1.00  0.00    -0.455 OA
ENDROOT
BRANCH   1  12
ATOM     12  C   UNL     1       1.865  -0.267   0.069  1.00  0.00    +0.059 A 
ATOM     13  C   UNL     1       4.081  -1.223  -0.270  1.00  0.00    +0.047 A 
ATOM     14  C   UNL     1       2.700  -1.383  -0.135  1.00  0.00    +0.020 A 
ATOM     15  C   UNL     1       4.652   0.052  -0.208  1.00  0.00    +0.119 A 
ATOM     16  C   UNL     1       3.834   1.168  -0.013  1.00  0.00    +0.093 A 
ATOM     17  C   UNL     1       2.446   1.019   0.127  1.00  0.00    +0.130 A 
BRANCH  15  18
ATOM     18  O   UNL     1       6.028   0.222  -0.342  1.00  0.00    -0.508 OA
ATOM     19  H   UNL     1       6.647  -0.567  -0.486  1.00  0.00    +0.293 HD
ENDBRANCH  15  18
BRANCH  17  20
ATOM     20  O   UNL     1       1.650   2.145   0.337  1.00  0.00    -0.507 OA
ATOM     21  H   UNL     1       2.047   3.076   0.385  1.00  0.00    +0.293 HD
ENDBRANCH  17  20
ENDBRANCH   1  12
BRANCH   6  22
ATOM     22  O   UNL     1      -4.557  -1.832   0.784  1.00  0.00    -0.507 OA
ATOM     23  H   UNL     1      -4.196  -2.764   0.915  1.00  0.00    +0.293 HD
ENDBRANCH   6  22
BRANCH   8  24
ATOM     24  O   UNL     1      -4.630   2.525  -1.194  1.00  0.00    -0.508 OA
ATOM     25  H   UNL     1      -4.188   3.342  -1.599  1.00  0.00    +0.293 HD
ENDBRANCH   8  24
TORSDOF 5
