REMARK SMILES O=c1cc(-c2ccc(O)cc2)oc2cc(O)cc(O)c12
REMARK SMILES IDX 4 1 3 2 2 3 1 4 20 5 18 6 17 7 15 8 14 9 13 10 12 11 5 12
REMARK SMILES IDX 6 13 7 14 8 15 11 16 10 17 9 18 19 20 16 22
REMARK H PARENT 9 19 19 21 16 23
ROOT
ATOM      1  C   UNL     1       0.473  -0.476  -0.138  1.00  0.00    +0.138 A 
ATOM      2  C   UNL     1      -0.200  -1.700  -0.256  1.00  0.00    +0.100 A 
ATOM      3  C   UNL     1      -1.596  -1.722  -0.265  1.00  0.00    +0.197 A 
ATOM      4  O   UNL     1      -2.171  -2.840  -0.310  1.00  0.00    -0.289 OA
ATOM      5  C   UNL     1      -2.319  -0.508  -0.185  1.00  0.00    +0.107 A 
ATOM      6  C   UNL     1      -3.742  -0.406  -0.226  1.00  0.00    +0.134 A 
ATOM      7  C   UNL     1      -4.350   0.839  -0.021  1.00  0.00    +0.093 A 
ATOM      8  C   UNL     1      -3.586   1.994   0.162  1.00  0.00    +0.123 A 
ATOM      9  C   UNL     1      -2.195   1.912   0.149  1.00  0.00    +0.094 A 
ATOM     10  C   UNL     1      -1.559   0.680  -0.018  1.00  0.00    +0.146 A 
ATOM     11  O   UNL     1      -0.231   0.644  -0.009  1.00  0.00    -0.456 OA
ENDROOT
BRANCH   1  12
ATOM     12  C   UNL     1       1.955  -0.394  -0.124  1.00  0.00    +0.018 A 
ATOM     13  C   UNL     1       2.584   0.682   0.528  1.00  0.00    +0.016 A 
ATOM     14  C   UNL     1       3.978   0.785   0.547  1.00  0.00    +0.047 A 
ATOM     15  C   UNL     1       4.765  -0.179  -0.094  1.00  0.00    +0.115 A 
ATOM     16  C   UNL     1       2.756  -1.353  -0.777  1.00  0.00    +0.016 A 
ATOM     17  C   UNL     1       4.150  -1.245  -0.757  1.00  0.00    +0.047 A 
BRANCH  15  18
ATOM     18  O   UNL     1       6.155  -0.086  -0.082  1.00  0.00    -0.508 OA
ATOM     19  H   UNL     1       6.630   0.675   0.389  1.00  0.00    +0.293 HD
ENDBRANCH  15  18
ENDBRANCH   1  12
BRANCH   6  20
ATOM     20  O   UNL     1      -4.595  -1.482  -0.486  1.00  0.00    -0.507 OA
ATOM     21  H   UNL     1      -4.311  -2.355  -0.904  1.00  0.00    +0.293 HD
ENDBRANCH   6  20
BRANCH   8  22
ATOM     22  O   UNL     1      -4.200   3.230   0.349  1.00  0.00    -0.508 OA
ATOM     23  H   UNL     1      -5.209   3.324   0.361  1.00  0.00    +0.293 HD
ENDBRANCH   8  22
TORSDOF 4
