REMARK SMILES O=c1cc(-c2ccc(O)c(O)c2)oc2cc(O)cc(O)c12
REMARK SMILES IDX 1 1 2 2 3 3 4 4 13 5 14 6 15 7 16 8 18 9 19 10 21 11 5 12
REMARK SMILES IDX 6 13 12 14 7 15 10 16 8 17 11 18 9 20 20 22 17 24
REMARK H PARENT 11 19 9 21 20 23 17 25
ROOT
ATOM      1  O   UNL     1      -2.402  -2.121   2.018  1.00  0.00    -0.289 OA
ATOM      2  C   UNL     1      -1.813  -1.340   1.227  1.00  0.00    +0.197 A 
ATOM      3  C   UNL     1      -0.422  -1.415   1.141  1.00  0.00    +0.100 A 
ATOM      4  C   UNL     1       0.272  -0.514   0.322  1.00  0.00    +0.138 A 
ATOM      5  O   UNL     1      -0.406   0.415  -0.343  1.00  0.00    -0.456 OA
ATOM      6  C   UNL     1      -1.729   0.526  -0.303  1.00  0.00    +0.146 A 
ATOM      7  C   UNL     1      -2.336   1.558  -1.024  1.00  0.00    +0.094 A 
ATOM      8  C   UNL     1      -3.721   1.719  -0.997  1.00  0.00    +0.123 A 
ATOM      9  C   UNL     1      -4.508   0.829  -0.267  1.00  0.00    +0.093 A 
ATOM     10  C   UNL     1      -3.933  -0.236   0.438  1.00  0.00    +0.134 A 
ATOM     11  C   UNL     1      -2.513  -0.378   0.462  1.00  0.00    +0.107 A 
ENDROOT
BRANCH   4  12
ATOM     12  C   UNL     1       1.751  -0.550   0.194  1.00  0.00    +0.021 A 
ATOM     13  C   UNL     1       2.479  -1.743   0.365  1.00  0.00    +0.016 A 
ATOM     14  C   UNL     1       2.446   0.627  -0.138  1.00  0.00    +0.062 A 
ATOM     15  C   UNL     1       3.870  -1.749   0.228  1.00  0.00    +0.051 A 
ATOM     16  C   UNL     1       3.842   0.621  -0.275  1.00  0.00    +0.158 A 
ATOM     17  C   UNL     1       4.556  -0.574  -0.088  1.00  0.00    +0.157 A 
BRANCH  16  18
ATOM     18  O   UNL     1       4.520   1.796  -0.595  1.00  0.00    -0.504 OA
ATOM     19  H   UNL     1       4.028   2.671  -0.734  1.00  0.00    +0.293 HD
ENDBRANCH  16  18
BRANCH  17  20
ATOM     20  O   UNL     1       5.944  -0.613  -0.216  1.00  0.00    -0.504 OA
ATOM     21  H   UNL     1       6.487   0.212  -0.446  1.00  0.00    +0.293 HD
ENDBRANCH  17  20
ENDBRANCH   4  12
BRANCH  10  22
ATOM     22  O   UNL     1      -4.817  -1.120   1.063  1.00  0.00    -0.507 OA
ATOM     23  H   UNL     1      -4.580  -2.050   1.372  1.00  0.00    +0.293 HD
ENDBRANCH  10  22
BRANCH   8  24
ATOM     24  O   UNL     1      -4.330   2.758  -1.699  1.00  0.00    -0.508 OA
ATOM     25  H   UNL     1      -3.787   3.420  -2.241  1.00  0.00    +0.293 HD
ENDBRANCH   8  24
TORSDOF 5
