REMARK SMILES O=c1c(O)c(-c2ccc(O)c(O)c2)oc2cc(O)cc(O)c12
REMARK SMILES IDX 1 1 2 2 3 3 5 4 14 5 15 6 16 7 17 8 19 9 20 10 22 11 4 12
REMARK SMILES IDX 6 14 7 15 13 16 8 17 11 18 9 19 12 20 10 22 21 24 18 26
REMARK H PARENT 4 13 12 21 10 23 21 25 18 27
ROOT
ATOM      1  O   UNL     1       2.039  -2.778  -1.490  1.00  0.00    -0.285 OA
ATOM      2  C   UNL     1       1.574  -1.757  -0.920  1.00  0.00    +0.238 A 
ATOM      3  C   UNL     1       0.182  -1.581  -0.881  1.00  0.00    +0.208 A 
ATOM      4  C   UNL     1      -0.342  -0.413  -0.299  1.00  0.00    +0.180 A 
ATOM      5  O   UNL     1       0.484   0.522   0.156  1.00  0.00    -0.452 OA
ATOM      6  C   UNL     1       1.806   0.403   0.139  1.00  0.00    +0.146 A 
ATOM      7  C   UNL     1       2.578   1.462   0.622  1.00  0.00    +0.094 A 
ATOM      8  C   UNL     1       3.971   1.383   0.612  1.00  0.00    +0.123 A 
ATOM      9  C   UNL     1       4.596   0.228   0.145  1.00  0.00    +0.093 A 
ATOM     10  C   UNL     1       3.848  -0.865  -0.311  1.00  0.00    +0.134 A 
ATOM     11  C   UNL     1       2.425  -0.771  -0.363  1.00  0.00    +0.111 A 
ENDROOT
BRANCH   3  12
ATOM     12  O   UNL     1      -0.675  -2.531  -1.444  1.00  0.00    -0.502 OA
ATOM     13  H   UNL     1      -0.335  -3.380  -1.879  1.00  0.00    +0.293 HD
ENDBRANCH   3  12
BRANCH   4  14
ATOM     14  C   UNL     1      -1.799  -0.168  -0.198  1.00  0.00    +0.025 A 
ATOM     15  C   UNL     1      -2.685  -1.182   0.205  1.00  0.00    +0.016 A 
ATOM     16  C   UNL     1      -2.303   1.117  -0.454  1.00  0.00    +0.062 A 
ATOM     17  C   UNL     1      -4.053  -0.921   0.316  1.00  0.00    +0.051 A 
ATOM     18  C   UNL     1      -3.676   1.381  -0.343  1.00  0.00    +0.158 A 
ATOM     19  C   UNL     1      -4.555   0.354   0.041  1.00  0.00    +0.157 A 
BRANCH  18  20
ATOM     20  O   UNL     1      -4.169   2.657  -0.613  1.00  0.00    -0.504 OA
ATOM     21  H   UNL     1      -3.556   3.414  -0.891  1.00  0.00    +0.293 HD
ENDBRANCH  18  20
BRANCH  19  22
ATOM     22  O   UNL     1      -5.926   0.584   0.159  1.00  0.00    -0.504 OA
ATOM     23  H   UNL     1      -6.337   1.490  -0.028  1.00  0.00    +0.293 HD
ENDBRANCH  19  22
ENDBRANCH   4  14
BRANCH  10  24
ATOM     24  O   UNL     1       4.569  -2.009  -0.667  1.00  0.00    -0.507 OA
ATOM     25  H   UNL     1       4.178  -2.936  -0.734  1.00  0.00    +0.293 HD
ENDBRANCH  10  24
BRANCH   8  26
ATOM     26  O   UNL     1       4.746   2.446   1.073  1.00  0.00    -0.508 OA
ATOM     27  H   UNL     1       4.323   3.298   1.421  1.00  0.00    +0.293 HD
ENDBRANCH   8  26
TORSDOF 6
