REMARK SMILES OC1CC2SC([C@@H](O)OCC3CCCCC3)CN2C(O)N1CC1CCCCC1
REMARK SMILES IDX 7 1 6 2 18 3 19 4 17 5 4 6 21 7 5 8 3 9 2 10 20 11 22 13
REMARK SMILES IDX 23 14 24 15 28 16 25 17 27 18 26 19 1 20 8 22 9 24 10 25
REMARK SMILES IDX 11 26 12 27 16 28 13 29 15 30 14 31
REMARK H PARENT 20 12 1 21 8 23
ROOT
ATOM      1  C7  SP6 A 501      55.079  11.428  11.804  1.00  0.00    +0.261 C 
ENDROOT
BRANCH   1   2
ATOM      2  C8  SP6 A 501      54.329  11.092  10.734  1.00  0.00    +0.118 C 
ATOM      3  N1  SP6 A 501      52.437  10.867   9.555  1.00  0.00    -0.252 NA
ATOM      4  C5  SP6 A 501      51.127  10.956   9.262  1.00  0.00    +0.265 C 
ATOM      5  C6  SP6 A 501      53.001  11.313  10.716  1.00  0.00    +0.109 C 
ATOM      6  C3  SP6 A 501      53.333  10.314   8.730  1.00  0.00    +0.122 C 
ATOM      7  N6  SP6 A 501      50.672  10.445   8.027  1.00  0.00    -0.239 NA
ATOM      8  S1  SP6 A 501      54.925  10.322   9.354  1.00  0.00    -0.132 SA
ATOM      9  C2  SP6 A 501      52.950   9.794   7.487  1.00  0.00    +0.079 C 
ATOM     10  C1  SP6 A 501      51.597   9.855   7.131  1.00  0.00    +0.190 C 
BRANCH   4  11
ATOM     11  O2  SP6 A 501      50.313  11.477  10.063  1.00  0.00    -0.365 OA
ATOM     12  H   UNL     1       0.000   0.000   0.000  1.00  0.00    +0.214 HD
ENDBRANCH   4  11
BRANCH   7  13
ATOM     13  C4  SP6 A 501      49.240  10.511   7.694  1.00  0.00    +0.094 C 
BRANCH  13  14
ATOM     14  C21 SP6 A 501      48.579   9.255   8.247  1.00  0.00    +0.003 C 
ATOM     15  C15 SP6 A 501      47.481   8.699   7.588  1.00  0.00    +0.005 C 
ATOM     16  C17 SP6 A 501      49.053   8.634   9.413  1.00  0.00    +0.005 C 
ATOM     17  C13 SP6 A 501      46.870   7.545   8.090  1.00  0.00    +0.000 C 
ATOM     18  C19 SP6 A 501      48.447   7.484   9.915  1.00  0.00    +0.000 C 
ATOM     19  C10 SP6 A 501      47.349   6.938   9.251  1.00  0.00    +0.000 C 
ENDBRANCH  13  14
ENDBRANCH   7  13
BRANCH  10  20
ATOM     20  O1  SP6 A 501      51.198   9.403   6.031  1.00  0.00    -0.378 OA
ATOM     21  H   UNL     1       0.000   0.000   0.000  1.00  0.00    +0.212 HD
ENDBRANCH  10  20
ENDBRANCH   1   2
BRANCH   1  22
ATOM     22  O3  SP6 A 501      54.635  12.097  12.735  1.00  0.00    -0.367 OA
ATOM     23  H   UNL     1       0.000   0.000   0.000  1.00  0.00    +0.213 HD
ENDBRANCH   1  22
BRANCH   1  24
ATOM     24  O4  SP6 A 501      56.435  10.924  11.944  1.00  0.00    -0.351 OA
BRANCH  24  25
ATOM     25  C11 SP6 A 501      57.197  11.156  13.137  1.00  0.00    +0.167 C 
BRANCH  25  26
ATOM     26  C20 SP6 A 501      56.861  10.172  14.247  1.00  0.00    +0.015 C 
ATOM     27  C16 SP6 A 501      57.524  10.274  15.477  1.00  0.00    +0.006 C 
ATOM     28  C14 SP6 A 501      55.899   9.173  14.078  1.00  0.00    +0.006 C 
ATOM     29  C18 SP6 A 501      57.248   9.391  16.528  1.00  0.00    +0.000 C 
ATOM     30  C12 SP6 A 501      55.618   8.285  15.123  1.00  0.00    +0.000 C 
ATOM     31  C9  SP6 A 501      56.286   8.390  16.344  1.00  0.00    +0.000 C 
ENDBRANCH  25  26
ENDBRANCH  24  25
ENDBRANCH   1  24
TORSDOF 9
