REMARK SMILES COc1cccc2[nH]cc(CCNC(C)=O)c12
REMARK SMILES IDX 11 1 10 2 3 3 4 4 17 5 5 6 7 7 6 8 8 9 9 10 2 12 1 13 12 14
REMARK SMILES IDX 13 15 14 16 16 17 15 19
REMARK H PARENT 8 11 13 18
ROOT
ATOM      1  C   UNL     1       0.712   0.626   1.252  1.00  0.00    +0.059 C 
ENDROOT
BRANCH   1   2
ATOM      2  C   UNL     1      -0.521  -0.174   1.555  1.00  0.00    -0.017 A 
ATOM      3  C   UNL     1      -1.972   0.113  -0.517  1.00  0.00    +0.128 A 
ATOM      4  C   UNL     1      -3.207  -0.308  -1.067  1.00  0.00    +0.047 A 
ATOM      5  C   UNL     1      -1.633  -0.376   0.751  1.00  0.00    +0.045 A 
ATOM      6  C   UNL     1      -4.048  -1.189  -0.353  1.00  0.00    +0.006 A 
ATOM      7  C   UNL     1      -2.456  -1.236   1.438  1.00  0.00    +0.049 A 
ATOM      8  C   UNL     1      -3.674  -1.664   0.914  1.00  0.00    +0.027 A 
ATOM      9  N   UNL     1      -1.917  -1.588   2.617  1.00  0.00    -0.361 N 
ATOM     10  C   UNL     1      -0.729  -0.948   2.692  1.00  0.00    +0.087 A 
ATOM     11  H   UNL     1      -2.323  -2.235   3.329  1.00  0.00    +0.166 HD
BRANCH   3  12
ATOM     12  O   UNL     1      -1.102   0.983  -1.190  1.00  0.00    -0.496 OA
ATOM     13  C   UNL     1      -1.347   1.519  -2.485  1.00  0.00    +0.278 C 
ENDBRANCH   3  12
ENDBRANCH   1   2
BRANCH   1  14
ATOM     14  C   UNL     1       1.668  -0.168   0.358  1.00  0.00    +0.120 C 
BRANCH  14  15
ATOM     15  N   UNL     1       2.860   0.617   0.042  1.00  0.00    -0.356 N 
ATOM     16  C   UNL     1       3.902   0.093  -0.789  1.00  0.00    +0.216 C 
ATOM     17  O   UNL     1       3.806  -1.066  -1.277  1.00  0.00    -0.275 OA
ATOM     18  H   UNL     1       2.965   1.586   0.422  1.00  0.00    +0.163 HD
ATOM     19  C   UNL     1       5.101   0.929  -1.099  1.00  0.00    +0.114 C 
ENDBRANCH  14  15
ENDBRANCH   1  14
TORSDOF 4
