REMARK SMILES Oc1ccc(C=Cc2cccc(O)c2)cc1
REMARK SMILES IDX 6 1 7 2 5 3 4 4 3 5 2 6 15 7 16 8 1 9 8 11 14 12 9 13 12 14
REMARK SMILES IDX 10 15 11 16 13 17
REMARK H PARENT 1 10 13 18
ROOT
ATOM      1  C   UNL     1       0.311  -0.329   0.224  1.00  0.00    +0.009 C 
ATOM      2  C   UNL     1      -0.494   0.455  -0.511  1.00  0.00    +0.009 C 
ENDROOT
BRANCH   1   3
ATOM      3  C   UNL     1       1.793  -0.247   0.190  1.00  0.00    -0.025 A 
ATOM      4  C   UNL     1       2.518  -0.753   1.282  1.00  0.00    +0.012 A 
ATOM      5  C   UNL     1       3.916  -0.707   1.291  1.00  0.00    +0.047 A 
ATOM      6  C   UNL     1       4.609  -0.164   0.203  1.00  0.00    +0.115 A 
ATOM      7  C   UNL     1       2.501   0.285  -0.908  1.00  0.00    +0.012 A 
ATOM      8  C   UNL     1       3.898   0.328  -0.895  1.00  0.00    +0.047 A 
BRANCH   6   9
ATOM      9  O   UNL     1       6.001  -0.112   0.202  1.00  0.00    -0.508 OA
ATOM     10  H   UNL     1       6.545  -0.461   0.982  1.00  0.00    +0.293 HD
ENDBRANCH   6   9
ENDBRANCH   1   3
BRANCH   2  11
ATOM     11  C   UNL     1      -1.976   0.372  -0.477  1.00  0.00    -0.022 A 
ATOM     12  C   UNL     1      -2.683  -0.147   0.628  1.00  0.00    +0.054 A 
ATOM     13  C   UNL     1      -2.701   0.866  -1.574  1.00  0.00    +0.008 A 
ATOM     14  C   UNL     1      -4.085  -0.192   0.616  1.00  0.00    +0.116 A 
ATOM     15  C   UNL     1      -4.098   0.818  -1.583  1.00  0.00    +0.004 A 
ATOM     16  C   UNL     1      -4.788   0.286  -0.492  1.00  0.00    +0.046 A 
BRANCH  14  17
ATOM     17  O   UNL     1      -4.788  -0.707   1.704  1.00  0.00    -0.508 OA
ATOM     18  H   UNL     1      -4.310  -1.061   2.524  1.00  0.00    +0.293 HD
ENDBRANCH  14  17
ENDBRANCH   2  11
TORSDOF 4
