REMARK SMILES Oc1ccc(/C=C/c2cc(O)cc(O)c2)cc1
REMARK SMILES IDX 6 1 7 2 5 3 2 4 3 5 17 6 4 7 16 8 1 9 8 11 9 12 15 13 10 14
REMARK SMILES IDX 13 15 12 16 11 17 14 19
REMARK H PARENT 1 10 11 18 14 20
ROOT
ATOM      1  C   UNL     1       0.573  -0.497  -0.299  1.00  0.00    +0.009 C 
ATOM      2  C   UNL     1      -0.330   0.384   0.160  1.00  0.00    +0.009 C 
ENDROOT
BRANCH   1   3
ATOM      3  C   UNL     1       2.038  -0.264  -0.274  1.00  0.00    -0.025 A 
ATOM      4  C   UNL     1       4.834   0.078  -0.264  1.00  0.00    +0.115 A 
ATOM      5  C   UNL     1       3.990   1.194  -0.216  1.00  0.00    +0.047 A 
ATOM      6  C   UNL     1       4.284  -1.204  -0.327  1.00  0.00    +0.047 A 
ATOM      7  C   UNL     1       2.602   1.028  -0.226  1.00  0.00    +0.012 A 
ATOM      8  C   UNL     1       2.896  -1.375  -0.338  1.00  0.00    +0.012 A 
BRANCH   4   9
ATOM      9  O   UNL     1       6.219   0.233  -0.253  1.00  0.00    -0.508 OA
ATOM     10  H   UNL     1       6.649   1.150  -0.208  1.00  0.00    +0.293 HD
ENDBRANCH   4   9
ENDBRANCH   1   3
BRANCH   2  11
ATOM     11  C   UNL     1      -1.795   0.150   0.135  1.00  0.00    -0.018 A 
ATOM     12  C   UNL     1      -2.654   1.261   0.185  1.00  0.00    +0.054 A 
ATOM     13  C   UNL     1      -2.357  -1.143   0.100  1.00  0.00    +0.054 A 
ATOM     14  C   UNL     1      -4.045   1.091   0.172  1.00  0.00    +0.119 A 
ATOM     15  C   UNL     1      -3.745  -1.314   0.089  1.00  0.00    +0.119 A 
ATOM     16  C   UNL     1      -4.587  -0.196   0.120  1.00  0.00    +0.092 A 
BRANCH  14  17
ATOM     17  O   UNL     1      -4.896   2.193   0.211  1.00  0.00    -0.508 OA
ATOM     18  H   UNL     1      -4.535   3.139   0.249  1.00  0.00    +0.293 HD
ENDBRANCH  14  17
BRANCH  15  19
ATOM     19  O   UNL     1      -4.278  -2.601   0.052  1.00  0.00    -0.508 OA
ATOM     20  H   UNL     1      -5.279  -2.760   0.045  1.00  0.00    +0.293 HD
ENDBRANCH  15  19
ENDBRANCH   2  11
TORSDOF 5
